 
1 atom types
1 angle types
1 bond types
496 atoms
576 bonds
528 angles

 
  -0.0000000000000  26.0000000000000 xlo xhi
  -0.0000000000000   26.0000000000000 ylo yhi
  -0.0000000000000   26.0000000000000 zlo zhi 

  0 0 0 xy xz yz

Masses

1 1 #

Atoms

     1     1     1     5     1     1     1
     2     1     7     5     1     1     2
     3     1    13     5     1     1     3
     4     1    19     5     1     1     4
     5     1     1    11     1     1     5
     6     1     7    11     1     1     6
     7     1    13    11     1     1     7
     8     1    19    11     1     1     8
     9     1     1    17     1     1     9
    10     1     7    17     1     1    10
    11     1    13    17     1     1    11
    12     1    19    17     1     1    12
    13     1     1    23     1     1    13
    14     1     7    23     1     1    14
    15     1    13    23     1     1    15
    16     1    19    23     1     1    16
    17     1     1     5     3     1    17
    18     1     7     5     3     1    18
    19     1    13     5     3     1    19
    20     1    19     5     3     1    20
    21     1     1    11     3     1    21
    22     1     7    11     3     1    22
    23     1    13    11     3     1    23
    24     1    19    11     3     1    24
    25     1     1    17     3     1    25
    26     1     7    17     3     1    26
    27     1    13    17     3     1    27
    28     1    19    17     3     1    28
    29     1     1    23     3     1    29
    30     1     7    23     3     1    30
    31     1    13    23     3     1    31
    32     1    19    23     3     1    32
    33     1     1     1     5     1    33
    34     1     7     1     5     1    34
    35     1    13     1     5     1    35
    36     1    19     1     5     1    36
    37     1     1     3     5     1    37
    38     1     7     3     5     1    38
    39     1    13     3     5     1    39
    40     1    19     3     5     1    40
    41     1     1     5     5     1    41
    42     1     3     5     5     1    42
    43     1     5     5     5     1    43
    44     1     7     5     5     1    44
    45     1     9     5     5     1    45
    46     1    11     5     5     1    46
    47     1    13     5     5     1    47
    48     1    15     5     5     1    48
    49     1    17     5     5     1    49
    50     1    19     5     5     1    50
    51     1    21     5     5     1    51
    52     1    23     5     5     1    52
    53     1    25     5     5     1    53
    54     1     1     7     5     1    54
    55     1     7     7     5     1    55
    56     1    13     7     5     1    56
    57     1    19     7     5     1    57
    58     1     1     9     5     1    58
    59     1     7     9     5     1    59
    60     1    13     9     5     1    60
    61     1    19     9     5     1    61
    62     1     1    11     5     1    62
    63     1     3    11     5     1    63
    64     1     5    11     5     1    64
    65     1     7    11     5     1    65
    66     1     9    11     5     1    66
    67     1    11    11     5     1    67
    68     1    13    11     5     1    68
    69     1    15    11     5     1    69
    70     1    17    11     5     1    70
    71     1    19    11     5     1    71
    72     1    21    11     5     1    72
    73     1    23    11     5     1    73
    74     1    25    11     5     1    74
    75     1     1    13     5     1    75
    76     1     7    13     5     1    76
    77     1    13    13     5     1    77
    78     1    19    13     5     1    78
    79     1     1    15     5     1    79
    80     1     7    15     5     1    80
    81     1    13    15     5     1    81
    82     1    19    15     5     1    82
    83     1     1    17     5     1    83
    84     1     3    17     5     1    84
    85     1     5    17     5     1    85
    86     1     7    17     5     1    86
    87     1     9    17     5     1    87
    88     1    11    17     5     1    88
    89     1    13    17     5     1    89
    90     1    15    17     5     1    90
    91     1    17    17     5     1    91
    92     1    19    17     5     1    92
    93     1    21    17     5     1    93
    94     1    23    17     5     1    94
    95     1    25    17     5     1    95
    96     1     1    19     5     1    96
    97     1     7    19     5     1    97
    98     1    13    19     5     1    98
    99     1    19    19     5     1    99
   100     1     1    21     5     1   100
   101     1     7    21     5     1   101
   102     1    13    21     5     1   102
   103     1    19    21     5     1   103
   104     1     1    23     5     1   104
   105     1     3    23     5     1   105
   106     1     5    23     5     1   106
   107     1     7    23     5     1   107
   108     1     9    23     5     1   108
   109     1    11    23     5     1   109
   110     1    13    23     5     1   110
   111     1    15    23     5     1   111
   112     1    17    23     5     1   112
   113     1    19    23     5     1   113
   114     1    21    23     5     1   114
   115     1    23    23     5     1   115
   116     1    25    23     5     1   116
   117     1     1    25     5     1   117
   118     1     7    25     5     1   118
   119     1    13    25     5     1   119
   120     1    19    25     5     1   120
   121     1     1     5     7     1   121
   122     1     7     5     7     1   122
   123     1    13     5     7     1   123
   124     1    19     5     7     1   124
   125     1     1    11     7     1   125
   126     1     7    11     7     1   126
   127     1    13    11     7     1   127
   128     1    19    11     7     1   128
   129     1     1    17     7     1   129
   130     1     7    17     7     1   130
   131     1    13    17     7     1   131
   132     1    19    17     7     1   132
   133     1     1    23     7     1   133
   134     1     7    23     7     1   134
   135     1    13    23     7     1   135
   136     1    19    23     7     1   136
   137     1     1     5     9     1   137
   138     1     7     5     9     1   138
   139     1    13     5     9     1   139
   140     1    19     5     9     1   140
   141     1     1    11     9     1   141
   142     1     7    11     9     1   142
   143     1    13    11     9     1   143
   144     1    19    11     9     1   144
   145     1     1    17     9     1   145
   146     1     7    17     9     1   146
   147     1    13    17     9     1   147
   148     1    19    17     9     1   148
   149     1     1    23     9     1   149
   150     1     7    23     9     1   150
   151     1    13    23     9     1   151
   152     1    19    23     9     1   152
   153     1     1     1    11     1   153
   154     1     7     1    11     1   154
   155     1    13     1    11     1   155
   156     1    19     1    11     1   156
   157     1     1     3    11     1   157
   158     1     7     3    11     1   158
   159     1    13     3    11     1   159
   160     1    19     3    11     1   160
   161     1     1     5    11     1   161
   162     1     3     5    11     1   162
   163     1     5     5    11     1   163
   164     1     7     5    11     1   164
   165     1     9     5    11     1   165
   166     1    11     5    11     1   166
   167     1    13     5    11     1   167
   168     1    15     5    11     1   168
   169     1    17     5    11     1   169
   170     1    19     5    11     1   170
   171     1    21     5    11     1   171
   172     1    23     5    11     1   172
   173     1    25     5    11     1   173
   174     1     1     7    11     1   174
   175     1     7     7    11     1   175
   176     1    13     7    11     1   176
   177     1    19     7    11     1   177
   178     1     1     9    11     1   178
   179     1     7     9    11     1   179
   180     1    13     9    11     1   180
   181     1    19     9    11     1   181
   182     1     1    11    11     1   182
   183     1     3    11    11     1   183
   184     1     5    11    11     1   184
   185     1     7    11    11     1   185
   186     1     9    11    11     1   186
   187     1    11    11    11     1   187
   188     1    13    11    11     1   188
   189     1    15    11    11     1   189
   190     1    17    11    11     1   190
   191     1    19    11    11     1   191
   192     1    21    11    11     1   192
   193     1    23    11    11     1   193
   194     1    25    11    11     1   194
   195     1     1    13    11     1   195
   196     1     7    13    11     1   196
   197     1    13    13    11     1   197
   198     1    19    13    11     1   198
   199     1     1    15    11     1   199
   200     1     7    15    11     1   200
   201     1    13    15    11     1   201
   202     1    19    15    11     1   202
   203     1     1    17    11     1   203
   204     1     3    17    11     1   204
   205     1     5    17    11     1   205
   206     1     7    17    11     1   206
   207     1     9    17    11     1   207
   208     1    11    17    11     1   208
   209     1    13    17    11     1   209
   210     1    15    17    11     1   210
   211     1    17    17    11     1   211
   212     1    19    17    11     1   212
   213     1    21    17    11     1   213
   214     1    23    17    11     1   214
   215     1    25    17    11     1   215
   216     1     1    19    11     1   216
   217     1     7    19    11     1   217
   218     1    13    19    11     1   218
   219     1    19    19    11     1   219
   220     1     1    21    11     1   220
   221     1     7    21    11     1   221
   222     1    13    21    11     1   222
   223     1    19    21    11     1   223
   224     1     1    23    11     1   224
   225     1     3    23    11     1   225
   226     1     5    23    11     1   226
   227     1     7    23    11     1   227
   228     1     9    23    11     1   228
   229     1    11    23    11     1   229
   230     1    13    23    11     1   230
   231     1    15    23    11     1   231
   232     1    17    23    11     1   232
   233     1    19    23    11     1   233
   234     1    21    23    11     1   234
   235     1    23    23    11     1   235
   236     1    25    23    11     1   236
   237     1     1    25    11     1   237
   238     1     7    25    11     1   238
   239     1    13    25    11     1   239
   240     1    19    25    11     1   240
   241     1     1     5    13     1   241
   242     1     7     5    13     1   242
   243     1    13     5    13     1   243
   244     1    19     5    13     1   244
   245     1     1    11    13     1   245
   246     1     7    11    13     1   246
   247     1    13    11    13     1   247
   248     1    19    11    13     1   248
   249     1     1    17    13     1   249
   250     1     7    17    13     1   250
   251     1    13    17    13     1   251
   252     1    19    17    13     1   252
   253     1     1    23    13     1   253
   254     1     7    23    13     1   254
   255     1    13    23    13     1   255
   256     1    19    23    13     1   256
   257     1     1     5    15     1   257
   258     1     7     5    15     1   258
   259     1    13     5    15     1   259
   260     1    19     5    15     1   260
   261     1     1    11    15     1   261
   262     1     7    11    15     1   262
   263     1    13    11    15     1   263
   264     1    19    11    15     1   264
   265     1     1    17    15     1   265
   266     1     7    17    15     1   266
   267     1    13    17    15     1   267
   268     1    19    17    15     1   268
   269     1     1    23    15     1   269
   270     1     7    23    15     1   270
   271     1    13    23    15     1   271
   272     1    19    23    15     1   272
   273     1     1     1    17     1   273
   274     1     7     1    17     1   274
   275     1    13     1    17     1   275
   276     1    19     1    17     1   276
   277     1     1     3    17     1   277
   278     1     7     3    17     1   278
   279     1    13     3    17     1   279
   280     1    19     3    17     1   280
   281     1     1     5    17     1   281
   282     1     3     5    17     1   282
   283     1     5     5    17     1   283
   284     1     7     5    17     1   284
   285     1     9     5    17     1   285
   286     1    11     5    17     1   286
   287     1    13     5    17     1   287
   288     1    15     5    17     1   288
   289     1    17     5    17     1   289
   290     1    19     5    17     1   290
   291     1    21     5    17     1   291
   292     1    23     5    17     1   292
   293     1    25     5    17     1   293
   294     1     1     7    17     1   294
   295     1     7     7    17     1   295
   296     1    13     7    17     1   296
   297     1    19     7    17     1   297
   298     1     1     9    17     1   298
   299     1     7     9    17     1   299
   300     1    13     9    17     1   300
   301     1    19     9    17     1   301
   302     1     1    11    17     1   302
   303     1     3    11    17     1   303
   304     1     5    11    17     1   304
   305     1     7    11    17     1   305
   306     1     9    11    17     1   306
   307     1    11    11    17     1   307
   308     1    13    11    17     1   308
   309     1    15    11    17     1   309
   310     1    17    11    17     1   310
   311     1    19    11    17     1   311
   312     1    21    11    17     1   312
   313     1    23    11    17     1   313
   314     1    25    11    17     1   314
   315     1     1    13    17     1   315
   316     1     7    13    17     1   316
   317     1    13    13    17     1   317
   318     1    19    13    17     1   318
   319     1     1    15    17     1   319
   320     1     7    15    17     1   320
   321     1    13    15    17     1   321
   322     1    19    15    17     1   322
   323     1     1    17    17     1   323
   324     1     3    17    17     1   324
   325     1     5    17    17     1   325
   326     1     7    17    17     1   326
   327     1     9    17    17     1   327
   328     1    11    17    17     1   328
   329     1    13    17    17     1   329
   330     1    15    17    17     1   330
   331     1    17    17    17     1   331
   332     1    19    17    17     1   332
   333     1    21    17    17     1   333
   334     1    23    17    17     1   334
   335     1    25    17    17     1   335
   336     1     1    19    17     1   336
   337     1     7    19    17     1   337
   338     1    13    19    17     1   338
   339     1    19    19    17     1   339
   340     1     1    21    17     1   340
   341     1     7    21    17     1   341
   342     1    13    21    17     1   342
   343     1    19    21    17     1   343
   344     1     1    23    17     1   344
   345     1     3    23    17     1   345
   346     1     5    23    17     1   346
   347     1     7    23    17     1   347
   348     1     9    23    17     1   348
   349     1    11    23    17     1   349
   350     1    13    23    17     1   350
   351     1    15    23    17     1   351
   352     1    17    23    17     1   352
   353     1    19    23    17     1   353
   354     1    21    23    17     1   354
   355     1    23    23    17     1   355
   356     1    25    23    17     1   356
   357     1     1    25    17     1   357
   358     1     7    25    17     1   358
   359     1    13    25    17     1   359
   360     1    19    25    17     1   360
   361     1     1     5    19     1   361
   362     1     7     5    19     1   362
   363     1    13     5    19     1   363
   364     1    19     5    19     1   364
   365     1     1    11    19     1   365
   366     1     7    11    19     1   366
   367     1    13    11    19     1   367
   368     1    19    11    19     1   368
   369     1     1    17    19     1   369
   370     1     7    17    19     1   370
   371     1    13    17    19     1   371
   372     1    19    17    19     1   372
   373     1     1    23    19     1   373
   374     1     7    23    19     1   374
   375     1    13    23    19     1   375
   376     1    19    23    19     1   376
   377     1     1     5    21     1   377
   378     1     7     5    21     1   378
   379     1    13     5    21     1   379
   380     1    19     5    21     1   380
   381     1     1    11    21     1   381
   382     1     7    11    21     1   382
   383     1    13    11    21     1   383
   384     1    19    11    21     1   384
   385     1     1    17    21     1   385
   386     1     7    17    21     1   386
   387     1    13    17    21     1   387
   388     1    19    17    21     1   388
   389     1     1    23    21     1   389
   390     1     7    23    21     1   390
   391     1    13    23    21     1   391
   392     1    19    23    21     1   392
   393     1     1     1    23     1   393
   394     1     7     1    23     1   394
   395     1    13     1    23     1   395
   396     1    19     1    23     1   396
   397     1     1     3    23     1   397
   398     1     7     3    23     1   398
   399     1    13     3    23     1   399
   400     1    19     3    23     1   400
   401     1     1     5    23     1   401
   402     1     3     5    23     1   402
   403     1     5     5    23     1   403
   404     1     7     5    23     1   404
   405     1     9     5    23     1   405
   406     1    11     5    23     1   406
   407     1    13     5    23     1   407
   408     1    15     5    23     1   408
   409     1    17     5    23     1   409
   410     1    19     5    23     1   410
   411     1    21     5    23     1   411
   412     1    23     5    23     1   412
   413     1    25     5    23     1   413
   414     1     1     7    23     1   414
   415     1     7     7    23     1   415
   416     1    13     7    23     1   416
   417     1    19     7    23     1   417
   418     1     1     9    23     1   418
   419     1     7     9    23     1   419
   420     1    13     9    23     1   420
   421     1    19     9    23     1   421
   422     1     1    11    23     1   422
   423     1     3    11    23     1   423
   424     1     5    11    23     1   424
   425     1     7    11    23     1   425
   426     1     9    11    23     1   426
   427     1    11    11    23     1   427
   428     1    13    11    23     1   428
   429     1    15    11    23     1   429
   430     1    17    11    23     1   430
   431     1    19    11    23     1   431
   432     1    21    11    23     1   432
   433     1    23    11    23     1   433
   434     1    25    11    23     1   434
   435     1     1    13    23     1   435
   436     1     7    13    23     1   436
   437     1    13    13    23     1   437
   438     1    19    13    23     1   438
   439     1     1    15    23     1   439
   440     1     7    15    23     1   440
   441     1    13    15    23     1   441
   442     1    19    15    23     1   442
   443     1     1    17    23     1   443
   444     1     3    17    23     1   444
   445     1     5    17    23     1   445
   446     1     7    17    23     1   446
   447     1     9    17    23     1   447
   448     1    11    17    23     1   448
   449     1    13    17    23     1   449
   450     1    15    17    23     1   450
   451     1    17    17    23     1   451
   452     1    19    17    23     1   452
   453     1    21    17    23     1   453
   454     1    23    17    23     1   454
   455     1    25    17    23     1   455
   456     1     1    19    23     1   456
   457     1     7    19    23     1   457
   458     1    13    19    23     1   458
   459     1    19    19    23     1   459
   460     1     1    21    23     1   460
   461     1     7    21    23     1   461
   462     1    13    21    23     1   462
   463     1    19    21    23     1   463
   464     1     1    23    23     1   464
   465     1     3    23    23     1   465
   466     1     5    23    23     1   466
   467     1     7    23    23     1   467
   468     1     9    23    23     1   468
   469     1    11    23    23     1   469
   470     1    13    23    23     1   470
   471     1    15    23    23     1   471
   472     1    17    23    23     1   472
   473     1    19    23    23     1   473
   474     1    21    23    23     1   474
   475     1    23    23    23     1   475
   476     1    25    23    23     1   476
   477     1     1    25    23     1   477
   478     1     7    25    23     1   478
   479     1    13    25    23     1   479
   480     1    19    25    23     1   480
   481     1     1     5    25     1   481
   482     1     7     5    25     1   482
   483     1    13     5    25     1   483
   484     1    19     5    25     1   484
   485     1     1    11    25     1   485
   486     1     7    11    25     1   486
   487     1    13    11    25     1   487
   488     1    19    11    25     1   488
   489     1     1    17    25     1   489
   490     1     7    17    25     1   490
   491     1    13    17    25     1   491
   492     1    19    17    25     1   492
   493     1     1    23    25     1   493
   494     1     7    23    25     1   494
   495     1    13    23    25     1   495
   496     1    19    23    25     1   496

Bonds

     1     1     1    17
     2     1     2    18
     3     1     3    19
     4     1     4    20
     5     1     5    21
     6     1     6    22
     7     1     7    23
     8     1     8    24
     9     1     9    25
    10     1    10    26
    11     1    11    27
    12     1    12    28
    13     1    13    29
    14     1    14    30
    15     1    15    31
    16     1    16    32
    17     1    17    41
    18     1    18    44
    19     1    19    47
    20     1    20    50
    21     1    21    62
    22     1    22    65
    23     1    23    68
    24     1    24    71
    25     1    25    83
    26     1    26    86
    27     1    27    89
    28     1    28    92
    29     1    29   104
    30     1    30   107
    31     1    31   110
    32     1    32   113
    33     1    33    37
    34     1    34    38
    35     1    35    39
    36     1    36    40
    37     1    37    41
    38     1    38    44
    39     1    39    47
    40     1    40    50
    41     1    41    42
    42     1    41    54
    43     1    41   121
    44     1    42    43
    45     1    43    44
    46     1    44    45
    47     1    44    55
    48     1    44   122
    49     1    45    46
    50     1    46    47
    51     1    47    48
    52     1    47    56
    53     1    47   123
    54     1    48    49
    55     1    49    50
    56     1    50    51
    57     1    50    57
    58     1    50   124
    59     1    51    52
    60     1    52    53
    61     1    54    58
    62     1    55    59
    63     1    56    60
    64     1    57    61
    65     1    58    62
    66     1    59    65
    67     1    60    68
    68     1    61    71
    69     1    62    63
    70     1    62    75
    71     1    62   125
    72     1    63    64
    73     1    64    65
    74     1    65    66
    75     1    65    76
    76     1    65   126
    77     1    66    67
    78     1    67    68
    79     1    68    69
    80     1    68    77
    81     1    68   127
    82     1    69    70
    83     1    70    71
    84     1    71    72
    85     1    71    78
    86     1    71   128
    87     1    72    73
    88     1    73    74
    89     1    75    79
    90     1    76    80
    91     1    77    81
    92     1    78    82
    93     1    79    83
    94     1    80    86
    95     1    81    89
    96     1    82    92
    97     1    83    84
    98     1    83    96
    99     1    83   129
   100     1    84    85
   101     1    85    86
   102     1    86    87
   103     1    86    97
   104     1    86   130
   105     1    87    88
   106     1    88    89
   107     1    89    90
   108     1    89    98
   109     1    89   131
   110     1    90    91
   111     1    91    92
   112     1    92    93
   113     1    92    99
   114     1    92   132
   115     1    93    94
   116     1    94    95
   117     1    96   100
   118     1    97   101
   119     1    98   102
   120     1    99   103
   121     1   100   104
   122     1   101   107
   123     1   102   110
   124     1   103   113
   125     1   104   105
   126     1   104   117
   127     1   104   133
   128     1   105   106
   129     1   106   107
   130     1   107   108
   131     1   107   118
   132     1   107   134
   133     1   108   109
   134     1   109   110
   135     1   110   111
   136     1   110   119
   137     1   110   135
   138     1   111   112
   139     1   112   113
   140     1   113   114
   141     1   113   120
   142     1   113   136
   143     1   114   115
   144     1   115   116
   145     1   121   137
   146     1   122   138
   147     1   123   139
   148     1   124   140
   149     1   125   141
   150     1   126   142
   151     1   127   143
   152     1   128   144
   153     1   129   145
   154     1   130   146
   155     1   131   147
   156     1   132   148
   157     1   133   149
   158     1   134   150
   159     1   135   151
   160     1   136   152
   161     1   137   161
   162     1   138   164
   163     1   139   167
   164     1   140   170
   165     1   141   182
   166     1   142   185
   167     1   143   188
   168     1   144   191
   169     1   145   203
   170     1   146   206
   171     1   147   209
   172     1   148   212
   173     1   149   224
   174     1   150   227
   175     1   151   230
   176     1   152   233
   177     1   153   157
   178     1   154   158
   179     1   155   159
   180     1   156   160
   181     1   157   161
   182     1   158   164
   183     1   159   167
   184     1   160   170
   185     1   161   162
   186     1   161   174
   187     1   161   241
   188     1   162   163
   189     1   163   164
   190     1   164   165
   191     1   164   175
   192     1   164   242
   193     1   165   166
   194     1   166   167
   195     1   167   168
   196     1   167   176
   197     1   167   243
   198     1   168   169
   199     1   169   170
   200     1   170   171
   201     1   170   177
   202     1   170   244
   203     1   171   172
   204     1   172   173
   205     1   174   178
   206     1   175   179
   207     1   176   180
   208     1   177   181
   209     1   178   182
   210     1   179   185
   211     1   180   188
   212     1   181   191
   213     1   182   183
   214     1   182   195
   215     1   182   245
   216     1   183   184
   217     1   184   185
   218     1   185   186
   219     1   185   196
   220     1   185   246
   221     1   186   187
   222     1   187   188
   223     1   188   189
   224     1   188   197
   225     1   188   247
   226     1   189   190
   227     1   190   191
   228     1   191   192
   229     1   191   198
   230     1   191   248
   231     1   192   193
   232     1   193   194
   233     1   195   199
   234     1   196   200
   235     1   197   201
   236     1   198   202
   237     1   199   203
   238     1   200   206
   239     1   201   209
   240     1   202   212
   241     1   203   204
   242     1   203   216
   243     1   203   249
   244     1   204   205
   245     1   205   206
   246     1   206   207
   247     1   206   217
   248     1   206   250
   249     1   207   208
   250     1   208   209
   251     1   209   210
   252     1   209   218
   253     1   209   251
   254     1   210   211
   255     1   211   212
   256     1   212   213
   257     1   212   219
   258     1   212   252
   259     1   213   214
   260     1   214   215
   261     1   216   220
   262     1   217   221
   263     1   218   222
   264     1   219   223
   265     1   220   224
   266     1   221   227
   267     1   222   230
   268     1   223   233
   269     1   224   225
   270     1   224   237
   271     1   224   253
   272     1   225   226
   273     1   226   227
   274     1   227   228
   275     1   227   238
   276     1   227   254
   277     1   228   229
   278     1   229   230
   279     1   230   231
   280     1   230   239
   281     1   230   255
   282     1   231   232
   283     1   232   233
   284     1   233   234
   285     1   233   240
   286     1   233   256
   287     1   234   235
   288     1   235   236
   289     1   241   257
   290     1   242   258
   291     1   243   259
   292     1   244   260
   293     1   245   261
   294     1   246   262
   295     1   247   263
   296     1   248   264
   297     1   249   265
   298     1   250   266
   299     1   251   267
   300     1   252   268
   301     1   253   269
   302     1   254   270
   303     1   255   271